Template file                                                           
SP        RM062X                                                      6-311++G(3df,3pd)   
Number of atoms                            I                9
Info1-9                                    I   N=           9
          18          18           0           0           0         110
           1          18        -502
Charge                                     I                0
Multiplicity                               I                1
Number of electrons                        I               40
Number of alpha electrons                  I               20
Number of beta electrons                   I               20
Number of basis functions                  I              267
Number of independent functions            I              267
Number of point charges in /Mol/           I                0
Number of translation vectors              I                0
Atomic numbers                             I   N=           9
           6           1           1           6           8           8
           1           8           1
Nuclear charges                            R   N=           9
  6.00000000E+00  1.00000000E+00  1.00000000E+00  6.00000000E+00  8.00000000E+00
  8.00000000E+00  1.00000000E+00  8.00000000E+00  1.00000000E+00
Current cartesian coordinates              R   N=          27
  1.39783600E+00 -1.40315639E+00  3.78696078E-04  1.34158764E+00 -2.62575357E+00
 -1.66400897E+00  1.34142039E+00 -2.62432534E+00  1.66583841E+00 -9.68503577E-01
  1.85253650E-01 -6.82227275E-05 -9.53231439E-01  2.45055174E+00  8.24097086E-05
 -3.07194757E+00 -1.20832956E+00 -2.82232473E-04 -4.50096394E+00 -7.17765657E-02
  5.08019969E-04  3.55454243E+00  1.05806013E-01 -4.44261570E-04  3.00705393E+00
  1.84504637E+00  9.52379121E-04
Force Field                                I                0
Int Atom Types                             I   N=           9
           0           0           0           0           0           0
           0           0           0
MM charges                                 R   N=           9
  0.00000000E+00  0.00000000E+00  0.00000000E+00  0.00000000E+00  0.00000000E+00
  0.00000000E+00  0.00000000E+00  0.00000000E+00  0.00000000E+00
Integer atomic weights                     I   N=           9
          12           1           1          12          16          16
           1          16           1
Real atomic weights                        R   N=           9
  1.20000000E+01  1.00782504E+00  1.00782504E+00  1.20000000E+01  1.59949146E+01
  1.59949146E+01  1.00782504E+00  1.59949146E+01  1.00782504E+00
Atom fragment info                         I   N=           9
           0           0           0           0           0           0
           0           0           0
Atom residue num                           I   N=           9
           0           0           0           0           0           0
           0           0           0
Nuclear spins                              I   N=           9
           0           1           1           0           0           0
           1           0           1
Nuclear ZEff                               R   N=           9
 -3.60000000E+00 -1.00000000E+00 -1.00000000E+00 -3.60000000E+00 -5.60000000E+00
 -5.60000000E+00 -1.00000000E+00 -5.60000000E+00 -1.00000000E+00
Nuclear ZNuc                               R   N=           9
  6.00000000E+00  1.00000000E+00  1.00000000E+00  6.00000000E+00  8.00000000E+00
  8.00000000E+00  1.00000000E+00  8.00000000E+00  1.00000000E+00
Nuclear QMom                               R   N=           9
  0.00000000E+00  0.00000000E+00  0.00000000E+00  0.00000000E+00  0.00000000E+00
  0.00000000E+00  0.00000000E+00  0.00000000E+00  0.00000000E+00
Nuclear GFac                               R   N=           9
  0.00000000E+00  2.79284600E+00  2.79284600E+00  0.00000000E+00  0.00000000E+00
  0.00000000E+00  2.79284600E+00  0.00000000E+00  2.79284600E+00
MicOpt                                     I   N=           9
          -1          -1          -1          -1          -1          -1
          -1          -1          -1
SymInf integers                            I   N=          26
           1           1           1           1           1           0
           0           0           0           0           0           0
           0           0           0           0           0           0
           0           0           0           0           0           0
           0           0
RotTr to input orientation                 R   N=          12
 -7.07444377E-01  6.85853625E-01 -1.70667098E-01 -6.70041740E-01 -5.74005319E-01
  4.70703686E-01  2.24870007E-01  4.47350755E-01  8.65627392E-01  2.41919574E-01
  9.57257591E-01 -3.53023967E+00
Number of contracted shells                I               77
Number of primitive shells                 I              120
Pure/Cartesian d shells                    I                0
Pure/Cartesian f shells                    I                0
Highest angular momentum                   I                3
Largest degree of contraction              I                6
Shell types                                I   N=          77
           0          -1          -1          -1          -1          -2
          -2          -2          -3           0           0           0
           0           1           1           1          -2           0
           0           0           0           1           1           1
          -2           0          -1          -1          -1          -1
          -2          -2          -2          -3           0          -1
          -1          -1          -1          -2          -2          -2
          -3           0          -1          -1          -1          -1
          -2          -2          -2          -3           0           0
           0           0           1           1           1          -2
           0          -1          -1          -1          -1          -2
          -2          -2          -3           0           0           0
           0           1           1           1          -2
Number of primitives per shell             I   N=          77
           6           3           1           1           1           1
           1           1           1           3           1           1
           1           1           1           1           1           3
           1           1           1           1           1           1
           1           6           3           1           1           1
           1           1           1           1           6           3
           1           1           1           1           1           1
           1           6           3           1           1           1
           1           1           1           1           3           1
           1           1           1           1           1           1
           6           3           1           1           1           1
           1           1           1           3           1           1
           1           1           1           1           1
Shell to atom map                          I   N=          77
           1           1           1           1           1           1
           1           1           1           2           2           2
           2           2           2           2           2           3
           3           3           3           3           3           3
           3           4           4           4           4           4
           4           4           4           4           5           5
           5           5           5           5           5           5
           5           6           6           6           6           6
           6           6           6           6           7           7
           7           7           7           7           7           7
           8           8           8           8           8           8
           8           8           8           9           9           9
           9           9           9           9           9
Primitive exponents                        R   N=         120
  4.56324000E+03  6.82024000E+02  1.54973000E+02  4.44553000E+01  1.30290000E+01
  1.82773000E+00  2.09642000E+01  4.80331000E+00  1.45933000E+00  4.83456000E-01
  1.45585000E-01  4.38000000E-02  2.50400000E+00  6.26000000E-01  1.56500000E-01
  8.00000000E-01  3.38650000E+01  5.09479000E+00  1.15879000E+00  3.25840000E-01
  1.02741000E-01  3.60000000E-02  3.00000000E+00  7.50000000E-01  1.87500000E-01
  1.00000000E+00  3.38650000E+01  5.09479000E+00  1.15879000E+00  3.25840000E-01
  1.02741000E-01  3.60000000E-02  3.00000000E+00  7.50000000E-01  1.87500000E-01
  1.00000000E+00  4.56324000E+03  6.82024000E+02  1.54973000E+02  4.44553000E+01
  1.30290000E+01  1.82773000E+00  2.09642000E+01  4.80331000E+00  1.45933000E+00
  4.83456000E-01  1.45585000E-01  4.38000000E-02  2.50400000E+00  6.26000000E-01
  1.56500000E-01  8.00000000E-01  8.58850000E+03  1.29723000E+03  2.99296000E+02
  8.73771000E+01  2.56789000E+01  3.74004000E+00  4.21175000E+01  9.62837000E+00
  2.85332000E+00  9.05661000E-01  2.55611000E-01  8.45000000E-02  5.16800000E+00
  1.29200000E+00  3.23000000E-01  1.40000000E+00  8.58850000E+03  1.29723000E+03
  2.99296000E+02  8.73771000E+01  2.56789000E+01  3.74004000E+00  4.21175000E+01
  9.62837000E+00  2.85332000E+00  9.05661000E-01  2.55611000E-01  8.45000000E-02
  5.16800000E+00  1.29200000E+00  3.23000000E-01  1.40000000E+00  3.38650000E+01
  5.09479000E+00  1.15879000E+00  3.25840000E-01  1.02741000E-01  3.60000000E-02
  3.00000000E+00  7.50000000E-01  1.87500000E-01  1.00000000E+00  8.58850000E+03
  1.29723000E+03  2.99296000E+02  8.73771000E+01  2.56789000E+01  3.74004000E+00
  4.21175000E+01  9.62837000E+00  2.85332000E+00  9.05661000E-01  2.55611000E-01
  8.45000000E-02  5.16800000E+00  1.29200000E+00  3.23000000E-01  1.40000000E+00
  3.38650000E+01  5.09479000E+00  1.15879000E+00  3.25840000E-01  1.02741000E-01
  3.60000000E-02  3.00000000E+00  7.50000000E-01  1.87500000E-01  1.00000000E+00
Contraction coefficients                   R   N=         120
  1.96665025E-03  1.52306019E-02  7.61269097E-02  2.60801033E-01  6.16462078E-01
  2.21006028E-01  1.14660081E-01  9.19999648E-01 -3.03068213E-03  1.00000000E+00
  1.00000000E+00  1.00000000E+00  1.00000000E+00  1.00000000E+00  1.00000000E+00
  1.00000000E+00  2.54938145E-02  1.90373109E-01  8.52161486E-01  1.00000000E+00
  1.00000000E+00  1.00000000E+00  1.00000000E+00  1.00000000E+00  1.00000000E+00
  1.00000000E+00  2.54938145E-02  1.90373109E-01  8.52161486E-01  1.00000000E+00
  1.00000000E+00  1.00000000E+00  1.00000000E+00  1.00000000E+00  1.00000000E+00
  1.00000000E+00  1.96665025E-03  1.52306019E-02  7.61269097E-02  2.60801033E-01
  6.16462078E-01  2.21006028E-01  1.14660081E-01  9.19999648E-01 -3.03068213E-03
  1.00000000E+00  1.00000000E+00  1.00000000E+00  1.00000000E+00  1.00000000E+00
  1.00000000E+00  1.00000000E+00  1.89515008E-03  1.43859006E-02  7.07320031E-02
  2.40001011E-01  5.94797026E-01  2.80802012E-01  1.13889012E-01  9.20811101E-01
 -3.27447036E-03  1.00000000E+00  1.00000000E+00  1.00000000E+00  1.00000000E+00
  1.00000000E+00  1.00000000E+00  1.00000000E+00  1.89515008E-03  1.43859006E-02
  7.07320031E-02  2.40001011E-01  5.94797026E-01  2.80802012E-01  1.13889012E-01
  9.20811101E-01 -3.27447036E-03  1.00000000E+00  1.00000000E+00  1.00000000E+00
  1.00000000E+00  1.00000000E+00  1.00000000E+00  1.00000000E+00  2.54938145E-02
  1.90373109E-01  8.52161486E-01  1.00000000E+00  1.00000000E+00  1.00000000E+00
  1.00000000E+00  1.00000000E+00  1.00000000E+00  1.00000000E+00  1.89515008E-03
  1.43859006E-02  7.07320031E-02  2.40001011E-01  5.94797026E-01  2.80802012E-01
  1.13889012E-01  9.20811101E-01 -3.27447036E-03  1.00000000E+00  1.00000000E+00
  1.00000000E+00  1.00000000E+00  1.00000000E+00  1.00000000E+00  1.00000000E+00
  2.54938145E-02  1.90373109E-01  8.52161486E-01  1.00000000E+00  1.00000000E+00
  1.00000000E+00  1.00000000E+00  1.00000000E+00  1.00000000E+00  1.00000000E+00
P(S=P) Contraction coefficients            R   N=         120
  0.00000000E+00  0.00000000E+00  0.00000000E+00  0.00000000E+00  0.00000000E+00
  0.00000000E+00  4.02486927E-02  2.37593957E-01  8.15853851E-01  1.00000000E+00
  1.00000000E+00  1.00000000E+00  0.00000000E+00  0.00000000E+00  0.00000000E+00
  0.00000000E+00  0.00000000E+00  0.00000000E+00  0.00000000E+00  0.00000000E+00
  0.00000000E+00  0.00000000E+00  0.00000000E+00  0.00000000E+00  0.00000000E+00
  0.00000000E+00  0.00000000E+00  0.00000000E+00  0.00000000E+00  0.00000000E+00
  0.00000000E+00  0.00000000E+00  0.00000000E+00  0.00000000E+00  0.00000000E+00
  0.00000000E+00  0.00000000E+00  0.00000000E+00  0.00000000E+00  0.00000000E+00
  0.00000000E+00  0.00000000E+00  4.02486927E-02  2.37593957E-01  8.15853851E-01
  1.00000000E+00  1.00000000E+00  1.00000000E+00  0.00000000E+00  0.00000000E+00
  0.00000000E+00  0.00000000E+00  0.00000000E+00  0.00000000E+00  0.00000000E+00
  0.00000000E+00  0.00000000E+00  0.00000000E+00  3.65113974E-02  2.37152983E-01
  8.19701941E-01  1.00000000E+00  1.00000000E+00  1.00000000E+00  0.00000000E+00
  0.00000000E+00  0.00000000E+00  0.00000000E+00  0.00000000E+00  0.00000000E+00
  0.00000000E+00  0.00000000E+00  0.00000000E+00  0.00000000E+00  3.65113974E-02
  2.37152983E-01  8.19701941E-01  1.00000000E+00  1.00000000E+00  1.00000000E+00
  0.00000000E+00  0.00000000E+00  0.00000000E+00  0.00000000E+00  0.00000000E+00
  0.00000000E+00  0.00000000E+00  0.00000000E+00  0.00000000E+00  0.00000000E+00
  0.00000000E+00  0.00000000E+00  0.00000000E+00  0.00000000E+00  0.00000000E+00
  0.00000000E+00  0.00000000E+00  0.00000000E+00  0.00000000E+00  0.00000000E+00
  3.65113974E-02  2.37152983E-01  8.19701941E-01  1.00000000E+00  1.00000000E+00
  1.00000000E+00  0.00000000E+00  0.00000000E+00  0.00000000E+00  0.00000000E+00
  0.00000000E+00  0.00000000E+00  0.00000000E+00  0.00000000E+00  0.00000000E+00
  0.00000000E+00  0.00000000E+00  0.00000000E+00  0.00000000E+00  0.00000000E+00
Coordinates of each shell                  R   N=         231
  1.39783600E+00 -1.40315639E+00  3.78696078E-04  1.39783600E+00 -1.40315639E+00
  3.78696078E-04  1.39783600E+00 -1.40315639E+00  3.78696078E-04  1.39783600E+00
 -1.40315639E+00  3.78696078E-04  1.39783600E+00 -1.40315639E+00  3.78696078E-04
  1.39783600E+00 -1.40315639E+00  3.78696078E-04  1.39783600E+00 -1.40315639E+00
  3.78696078E-04  1.39783600E+00 -1.40315639E+00  3.78696078E-04  1.39783600E+00
 -1.40315639E+00  3.78696078E-04  1.34158764E+00 -2.62575357E+00 -1.66400897E+00
  1.34158764E+00 -2.62575357E+00 -1.66400897E+00  1.34158764E+00 -2.62575357E+00
 -1.66400897E+00  1.34158764E+00 -2.62575357E+00 -1.66400897E+00  1.34158764E+00
 -2.62575357E+00 -1.66400897E+00  1.34158764E+00 -2.62575357E+00 -1.66400897E+00
  1.34158764E+00 -2.62575357E+00 -1.66400897E+00  1.34158764E+00 -2.62575357E+00
 -1.66400897E+00  1.34142039E+00 -2.62432534E+00  1.66583841E+00  1.34142039E+00
 -2.62432534E+00  1.66583841E+00  1.34142039E+00 -2.62432534E+00  1.66583841E+00
  1.34142039E+00 -2.62432534E+00  1.66583841E+00  1.34142039E+00 -2.62432534E+00
  1.66583841E+00  1.34142039E+00 -2.62432534E+00  1.66583841E+00  1.34142039E+00
 -2.62432534E+00  1.66583841E+00  1.34142039E+00 -2.62432534E+00  1.66583841E+00
 -9.68503577E-01  1.85253650E-01 -6.82227275E-05 -9.68503577E-01  1.85253650E-01
 -6.82227275E-05 -9.68503577E-01  1.85253650E-01 -6.82227275E-05 -9.68503577E-01
  1.85253650E-01 -6.82227275E-05 -9.68503577E-01  1.85253650E-01 -6.82227275E-05
 -9.68503577E-01  1.85253650E-01 -6.82227275E-05 -9.68503577E-01  1.85253650E-01
 -6.82227275E-05 -9.68503577E-01  1.85253650E-01 -6.82227275E-05 -9.68503577E-01
  1.85253650E-01 -6.82227275E-05 -9.53231439E-01  2.45055174E+00  8.24097086E-05
 -9.53231439E-01  2.45055174E+00  8.24097086E-05 -9.53231439E-01  2.45055174E+00
  8.24097086E-05 -9.53231439E-01  2.45055174E+00  8.24097086E-05 -9.53231439E-01
  2.45055174E+00  8.24097086E-05 -9.53231439E-01  2.45055174E+00  8.24097086E-05
 -9.53231439E-01  2.45055174E+00  8.24097086E-05 -9.53231439E-01  2.45055174E+00
  8.24097086E-05 -9.53231439E-01  2.45055174E+00  8.24097086E-05 -3.07194757E+00
 -1.20832956E+00 -2.82232473E-04 -3.07194757E+00 -1.20832956E+00 -2.82232473E-04
 -3.07194757E+00 -1.20832956E+00 -2.82232473E-04 -3.07194757E+00 -1.20832956E+00
 -2.82232473E-04 -3.07194757E+00 -1.20832956E+00 -2.82232473E-04 -3.07194757E+00
 -1.20832956E+00 -2.82232473E-04 -3.07194757E+00 -1.20832956E+00 -2.82232473E-04
 -3.07194757E+00 -1.20832956E+00 -2.82232473E-04 -3.07194757E+00 -1.20832956E+00
 -2.82232473E-04 -4.50096394E+00 -7.17765657E-02  5.08019969E-04 -4.50096394E+00
 -7.17765657E-02  5.08019969E-04 -4.50096394E+00 -7.17765657E-02  5.08019969E-04
 -4.50096394E+00 -7.17765657E-02  5.08019969E-04 -4.50096394E+00 -7.17765657E-02
  5.08019969E-04 -4.50096394E+00 -7.17765657E-02  5.08019969E-04 -4.50096394E+00
 -7.17765657E-02  5.08019969E-04 -4.50096394E+00 -7.17765657E-02  5.08019969E-04
  3.55454243E+00  1.05806013E-01 -4.44261570E-04  3.55454243E+00  1.05806013E-01
 -4.44261570E-04  3.55454243E+00  1.05806013E-01 -4.44261570E-04  3.55454243E+00
  1.05806013E-01 -4.44261570E-04  3.55454243E+00  1.05806013E-01 -4.44261570E-04
  3.55454243E+00  1.05806013E-01 -4.44261570E-04  3.55454243E+00  1.05806013E-01
 -4.44261570E-04  3.55454243E+00  1.05806013E-01 -4.44261570E-04  3.55454243E+00
  1.05806013E-01 -4.44261570E-04  3.00705393E+00  1.84504637E+00  9.52379121E-04
  3.00705393E+00  1.84504637E+00  9.52379121E-04  3.00705393E+00  1.84504637E+00
  9.52379121E-04  3.00705393E+00  1.84504637E+00  9.52379121E-04  3.00705393E+00
  1.84504637E+00  9.52379121E-04  3.00705393E+00  1.84504637E+00  9.52379121E-04
  3.00705393E+00  1.84504637E+00  9.52379121E-04  3.00705393E+00  1.84504637E+00
  9.52379121E-04
Constraint Structure                       R   N=          27
  1.39783600E+00 -1.40315639E+00  3.78696078E-04  1.34158764E+00 -2.62575357E+00
 -1.66400897E+00  1.34142039E+00 -2.62432534E+00  1.66583841E+00 -9.68503577E-01
  1.85253650E-01 -6.82227275E-05 -9.53231439E-01  2.45055174E+00  8.24097086E-05
 -3.07194757E+00 -1.20832956E+00 -2.82232473E-04 -4.50096394E+00 -7.17765657E-02
  5.08019969E-04  3.55454243E+00  1.05806013E-01 -4.44261570E-04  3.00705393E+00
  1.84504637E+00  9.52379121E-04
Num ILSW                                   I              100
ILSW                                       I   N=         100
           0           0           0           0           2           0
           0           0           0           0        4336          -1
           0           0           0           0           0           0
           0           0           1           0           0           0
           1           0           0           0           0           0
           0           0      100000           0          -1           0
           0           0           0           0           0           0
           0           0           0           1           0           0
           0           0           1           0           0           0
           0           0           4          41           0           0
           0           0          55           0           0           0
           0           0           0           0           0           0
           0           0           0           0           0           0
           0           0           0           0           0           0
           0           0           0           0           0           0
           0           0           0           0           0           0
           0           0           0           0
Num RLSW                                   I               41
RLSW                                       R   N=          41
  1.00000000E+00  1.00000000E+00  1.00000000E+00  1.00000000E+00  5.40000000E-01
  0.00000000E+00  0.00000000E+00  1.00000000E+00  0.00000000E+00  0.00000000E+00
  0.00000000E+00  0.00000000E+00  1.00000000E+00  0.00000000E+00  0.00000000E+00
  0.00000000E+00  0.00000000E+00  1.00000000E+00  0.00000000E+00  0.00000000E+00
  0.00000000E+00  0.00000000E+00  1.00000000E+00  0.00000000E+00  0.00000000E+00
  0.00000000E+00  0.00000000E+00  1.00000000E+00  0.00000000E+00  0.00000000E+00
  0.00000000E+00  0.00000000E+00  1.00000000E+00  0.00000000E+00  0.00000000E+00
  0.00000000E+00  0.00000000E+00  0.00000000E+00  1.00000000E+00  1.00000000E+00
  0.00000000E+00
MxBond                                     I                4
NBond                                      I   N=           9
           4           1           1           3           1           2
           1           2           1
IBond                                      I   N=          36
           2           3           4           8           1           0
           0           0           1           0           0           0
           1           5           6           0           4           0
           0           0           4           7           0           0
           6           0           0           0           1           9
           0           0           8           0           0           0
RBond                                      R   N=          36
  1.00000000E+00  1.00000000E+00  1.00000000E+00  1.00000000E+00  1.00000000E+00
  0.00000000E+00  0.00000000E+00  0.00000000E+00  1.00000000E+00  0.00000000E+00
  0.00000000E+00  0.00000000E+00  1.00000000E+00  2.00000000E+00  1.50000000E+00
  0.00000000E+00  2.00000000E+00  0.00000000E+00  0.00000000E+00  0.00000000E+00
  1.50000000E+00  1.00000000E+00  0.00000000E+00  0.00000000E+00  1.00000000E+00
  0.00000000E+00  0.00000000E+00  0.00000000E+00  1.00000000E+00  1.00000000E+00
  0.00000000E+00  0.00000000E+00  1.00000000E+00  0.00000000E+00  0.00000000E+00
  0.00000000E+00
Virial Ratio                               R      2.003268583719933E+00
SCF Energy                                 R     -3.043029262179762E+02
Total Energy                               R     -3.043029262179762E+02
RMS Density                                R      4.792112796800264E-09
Job Status                                 I                1
Nuclear derivative order                   I                0
External E-field                           R   N=          35
  0.00000000E+00  0.00000000E+00  0.00000000E+00  0.00000000E+00  0.00000000E+00
  0.00000000E+00  0.00000000E+00  0.00000000E+00  0.00000000E+00  0.00000000E+00
  0.00000000E+00  0.00000000E+00  0.00000000E+00  0.00000000E+00  0.00000000E+00
  0.00000000E+00  0.00000000E+00  0.00000000E+00  0.00000000E+00  0.00000000E+00
  0.00000000E+00  0.00000000E+00  0.00000000E+00  0.00000000E+00  0.00000000E+00
  0.00000000E+00  0.00000000E+00  0.00000000E+00  0.00000000E+00  0.00000000E+00
  0.00000000E+00  0.00000000E+00  0.00000000E+00  0.00000000E+00  0.00000000E+00
IOpCl                                      I                0
IROHF                                      I                0
Alpha Orbital Energies                     R   N=         267
 -1.96943100E+01 -1.96416119E+01 -1.96319645E+01 -1.06962828E+01 -1.06113824E+01
 -1.26576078E+00 -1.17830039E+00 -1.15438809E+00 -8.50095002E-01 -7.18330170E-01
 -6.34434762E-01 -6.06582116E-01 -5.89091849E-01 -5.48875119E-01 -5.15771090E-01
 -5.10957114E-01 -4.42328903E-01 -4.24738630E-01 -3.85894607E-01 -3.69097623E-01
 -8.34311374E-03  1.25367594E-02  1.98604683E-02  2.70187652E-02  3.96796071E-02
  6.16323629E-02  6.85265390E-02  7.49685316E-02  7.75310312E-02  1.06915075E-01
  1.07500445E-01  1.18601306E-01  1.28327795E-01  1.62702083E-01  1.79225595E-01
  1.93559335E-01  2.05345357E-01  2.17242687E-01  2.23019048E-01  2.30660856E-01
  2.56494776E-01  2.65844463E-01  2.65992448E-01  2.75223599E-01  2.93083589E-01
  2.95534096E-01  2.99942056E-01  3.18800671E-01  3.36232005E-01  3.50603308E-01
  3.56011123E-01  3.68712364E-01  3.75737508E-01  3.77082987E-01  4.35417675E-01
  4.41584660E-01  4.69288564E-01  4.86715567E-01  4.91655761E-01  5.17243538E-01
  5.39248624E-01  5.46991300E-01  5.61253463E-01  5.63513503E-01  6.17441307E-01
  6.19001089E-01  6.24986479E-01  6.36890776E-01  6.70303527E-01  6.82057137E-01
  6.92877413E-01  7.40800379E-01  7.54893919E-01  7.62175644E-01  7.72048058E-01
  7.76221990E-01  8.14910924E-01  8.28366531E-01  8.49970308E-01  8.74470092E-01
  8.81745250E-01  9.04167030E-01  9.20591128E-01  9.68796380E-01  9.83163414E-01
  9.92598587E-01  1.04757936E+00  1.05073919E+00  1.07076635E+00  1.09763540E+00
  1.12171475E+00  1.12192097E+00  1.14106972E+00  1.15187330E+00  1.15354957E+00
  1.18506529E+00  1.21191208E+00  1.21704139E+00  1.30689113E+00  1.31510111E+00
  1.32178844E+00  1.39346783E+00  1.42685275E+00  1.43008334E+00  1.46571077E+00
  1.49644784E+00  1.51888803E+00  1.56153472E+00  1.56771217E+00  1.61892152E+00
  1.69658737E+00  1.70165694E+00  1.71633746E+00  1.79590566E+00  1.79746962E+00
  1.82549196E+00  1.85754491E+00  1.90081634E+00  1.95746127E+00  1.96532060E+00
  1.99126807E+00  1.99953243E+00  2.08102097E+00  2.11134489E+00  2.15780399E+00
  2.18946136E+00  2.24500057E+00  2.29617830E+00  2.32313289E+00  2.35277370E+00
  2.37108409E+00  2.40081987E+00  2.50405202E+00  2.53861345E+00  2.63318119E+00
  2.65745088E+00  2.71576991E+00  2.79202028E+00  2.81403117E+00  2.82675441E+00
  2.87815247E+00  2.88742556E+00  2.89594046E+00  2.94274740E+00  3.01854187E+00
  3.05196239E+00  3.06579653E+00  3.09914957E+00  3.10409134E+00  3.13175772E+00
  3.17930079E+00  3.18538094E+00  3.18582086E+00  3.25470669E+00  3.25499624E+00
  3.28381687E+00  3.34581601E+00  3.36307061E+00  3.37696201E+00  3.38249459E+00
  3.43448558E+00  3.45268149E+00  3.46556541E+00  3.55210165E+00  3.61277855E+00
  3.63631491E+00  3.66523232E+00  3.76755986E+00  3.79915061E+00  3.86484103E+00
  3.86968967E+00  3.91261396E+00  3.93091666E+00  4.00591679E+00  4.05363616E+00
  4.10470434E+00  4.14590901E+00  4.19813853E+00  4.20205319E+00  4.25051052E+00
  4.30150867E+00  4.36725336E+00  4.42362243E+00  4.44244415E+00  4.52331365E+00
  4.63779006E+00  4.65849128E+00  4.73143688E+00  4.74004241E+00  4.78755356E+00
  4.82967079E+00  4.90104126E+00  4.94246821E+00  5.07040450E+00  5.09250004E+00
  5.12155543E+00  5.18934574E+00  5.20303872E+00  5.29075202E+00  5.38971389E+00
  5.41343372E+00  5.47862191E+00  5.50596666E+00  5.53454041E+00  5.56957330E+00
  5.57990220E+00  5.61268655E+00  5.67067160E+00  5.73426496E+00  5.82816353E+00
  5.84758429E+00  5.93110789E+00  5.94131317E+00  6.00568266E+00  6.20661917E+00
  6.22895327E+00  6.29499381E+00  6.36163107E+00  6.41325224E+00  6.46847504E+00
  6.59816532E+00  6.66605832E+00  6.83462218E+00  6.93522221E+00  7.10145265E+00
  7.12708712E+00  7.30316261E+00  7.52332936E+00  7.63948298E+00  7.66845482E+00
  7.81862403E+00  7.90136455E+00  8.06562261E+00  8.18358669E+00  8.24762959E+00
  8.26825152E+00  8.31695211E+00  8.41053488E+00  8.42084472E+00  8.48340892E+00
  8.52037247E+00  8.56127406E+00  8.66818692E+00  9.31372702E+00  9.37125607E+00
  9.48844311E+00  9.56260283E+00  1.43386101E+01  1.44013423E+01  1.44021485E+01
  1.44703749E+01  1.44800409E+01  1.45704467E+01  1.45789944E+01  1.46414104E+01
  1.46553854E+01  1.47489498E+01  1.49334939E+01  1.49769776E+01  1.50389974E+01
  1.53585715E+01  1.53795148E+01  2.51654587E+01  2.58114755E+01  5.05197867E+01
  5.06650805E+01  5.07078557E+01
Alpha MO coefficients                      R   N=       71289
  1.22148652E-05 -4.31730284E-05 -4.48403056E-05  2.38467096E-05  1.54788679E-08
  2.60620893E-04  2.27331904E-04 -2.15378230E-04 -1.36012768E-07  6.30868533E-03
 -4.21568742E-03 -2.08448665E-04 -9.76641244E-08 -1.60570565E-03  2.47338153E-04
 -6.54764923E-04  2.73031757E-07 -1.77222040E-05  1.44346679E-08 -5.62853075E-10
  2.78926691E-05  7.84990026E-06  1.77905393E-04 -8.57483148E-08  1.03685697E-07
 -2.07654103E-04 -3.21962147E-05  1.43148637E-03  1.32203644E-07  8.62139601E-07
  8.28817709E-04 -1.13199220E-03  9.04143443E-08 -1.70705519E-06 -7.51428657E-05
  8.69908112E-08  2.48734477E-08  9.87516774E-05  7.75029199E-06  4.23879717E-05
 -9.68288577E-04 -4.68973969E-04 -3.27425794E-04 -8.18778424E-06  1.28898289E-05
  1.76493870E-05  1.40279366E-05 -1.35009296E-04 -1.82769396E-04  2.69894866E-06
 -3.99151077E-04  2.81893602E-04 -1.47881334E-05  8.77223554E-06 -4.36398177E-05
  3.86620262E-06  1.84082344E-06  4.24072156E-05 -9.68148524E-04 -4.68438053E-04
 -3.27638580E-04 -8.17956759E-06  1.28751426E-05 -1.76529420E-05  1.39946813E-05
 -1.34788874E-04  1.82745696E-04  2.55393029E-06 -3.98714318E-04 -2.81520294E-04
 -1.48362936E-05 -8.79346087E-06  4.35889482E-05  3.81197887E-06  1.81081766E-06
  1.37402366E-06 -2.53503150E-05 -4.51530621E-05 -1.61558755E-05 -1.79549570E-08
  3.18136461E-04 -7.21072968E-04 -5.61989151E-04 -4.23041577E-08  6.29469062E-03
 -8.80182937E-03 -8.50460581E-04 -1.44101882E-06  3.79910486E-03  3.87584577E-04
 -5.21162749E-04  1.14414686E-07 -1.83758438E-05  1.52431377E-08  1.41600448E-08
  2.07111199E-05  9.07068034E-05 -5.66313200E-05 -7.04327651E-09 -4.37950185E-08
  4.36735292E-05 -1.02393441E-04 -2.00091548E-03 -1.61871780E-08  7.16750315E-07
  1.45101105E-03  5.06161963E-03 -7.21222144E-08 -1.40429720E-04 -7.37540969E-05
  2.70710742E-08  2.15798511E-08 -1.57654476E-04  3.41548570E-04 -8.94657730E-05
 -1.07669807E-04 -2.26726466E-05 -2.65628047E-06  3.21970014E-09  3.24036045E-04
  1.05619312E-04 -1.03039626E-04 -2.04035687E-08 -1.50956233E-03 -8.01652190E-04
  6.50567826E-04  4.43451922E-08  1.23646542E-03 -2.42128574E-04 -7.71472218E-04
 -8.31642176E-08 -3.25187002E-06  4.69929772E-09 -6.34742515E-10  7.92023394E-06
  4.07994269E-06 -5.93810222E-06 -2.11662501E-08  8.50434117E-09 -6.28891779E-05
 -1.25592945E-05  1.70183763E-04  9.88620722E-08 -3.32248884E-08 -3.13569730E-05